 -4.6015497e-02   1.2114543e-05
  3.4293152e-02   4.4164722e-06
  2.3970274e-02   2.3146437e-03
  2.9151976e-02   3.1750884e-03
  2.6166544e-03   6.0559280e-04
  1.2013781e-02   2.7114504e-03
 -1.0920307e-02   1.8537722e-03
 -8.7864371e-03   3.8561691e-05
 -1.4556243e-02   6.8039631e-06
  3.1203849e-02   1.6089824e-04
  8.3386358e-03   5.1899464e-03
  1.2763604e-02   4.8971895e-05
  7.5943589e-02   6.1193545e-04
 -1.4854787e-02   4.9189191e-07
  1.6618054e-01   9.3954826e-05
  2.8080735e-02   5.7098065e-03
  2.2126449e-02   1.6396117e-03
  5.0737662e-03   9.5078925e-05
  3.6645707e-02   3.7975607e-07
  3.8865615e-02   3.0736224e-05
  1.8595990e-02   4.2095517e-06
 -5.9605509e-02   7.5434044e-05
 -3.9571576e-02   6.7247660e-04
  4.3772519e-02   1.7154571e-05
  2.8619932e-02   1.5574566e-06
  2.0246046e-02   9.4159762e-04
  1.2476293e-02   1.6085913e-03
 -6.4797036e-02   1.6978796e-04
 -1.3615331e-01   2.4099059e-03
  3.8101532e-02   4.9195276e-04
 -1.2309287e-01   3.8790845e-06
 -1.3971899e-01   9.0044006e-07
 -8.3155252e-02   1.2760541e-02
  2.6956191e-02   3.2369985e-06
  8.8596763e-03   1.3089580e-03
  2.3559447e-02   4.0933065e-04
  7.2391316e-02   1.3237655e-04
  4.0523648e-02   8.1392194e-08
  7.3675044e-02   2.4859062e-06
 -1.3795166e-01   2.1032230e-07
 -1.9184319e-02   2.1322994e-05
 -4.7150459e-02   3.0145597e-07
 -3.4740001e-02   9.0412404e-06
 -7.1295267e-03   4.2368098e-05
  4.2027518e-02   4.4242221e-05
  3.7406258e-02   4.0108972e-04
  2.7583277e-01   4.7869484e-08
  6.0811698e-02   8.0007272e-09
  1.2581623e-02   7.2129914e-03
 -8.7246478e-02   1.1308636e-02
  3.6343660e-02   1.9347545e-04
  4.8287984e-02   3.7552599e-08
 -3.6817897e-02   4.0711733e-05
 -1.0551959e-01   1.5297339e-04
  1.3389008e-04   3.9525460e-03
  6.8902664e-02   3.1327576e-04
  1.2071078e-01   7.2858049e-05
  3.1340299e-03   3.6696478e-05
  2.1583663e-02   5.2393891e-04
 -1.1602760e-01   5.5354125e-05
  6.0032461e-02   2.0617978e-03
 -4.7301752e-03   2.1891519e-03
  4.1935205e-02   4.4352462e-05
 -2.1682281e-02   1.0170313e-06
 -1.8995089e-02   5.1969930e-04
  2.0989513e-02   6.0843709e-06
 -1.4743141e-02   1.1504010e-03
 -1.4711733e-01   6.3126360e-04
  3.2427471e-02   7.7823715e-05
 -2.6323171e-02   1.4625602e-05
 -4.9199603e-02   4.8924335e-06
 -4.0003933e-02   2.7449724e-07
 -1.6965909e-02   3.7972073e-04
 -4.4477344e-03   1.2361978e-06
  7.1205556e-02   1.4027765e-04
  6.1480276e-02   1.5803687e-06
  6.8323310e-03   1.8640768e-07
  8.8157803e-02   1.4435118e-03
  1.4687963e-02   1.6889453e-04
 -1.3696124e-03   4.1911583e-03
 -9.6242791e-03   2.2027343e-05
 -6.6559636e-03   1.0884263e-06
  3.8651954e-02   1.4256791e-05
  1.3013242e-01   2.4859199e-05
 -2.7747797e-02   3.2566697e-06
  5.7692281e-03   1.7826929e-07
  4.3962397e-02   8.4918883e-04
  1.5358553e-02   3.5962123e-05
  8.9706145e-02   2.1715218e-06
  1.8157495e-02   1.1971020e-08
  4.2921696e-02   7.7756058e-06
  1.6792364e-02   1.6094108e-04
 -6.3793644e-02   2.6981888e-05
  7.8612957e-03   3.9273826e-04
 -7.7898383e-02   2.0317967e-07
 -2.4393875e-02   2.1941785e-03
 -2.5465754e-03   6.0639408e-04
 -4.1663352e-02   2.4159094e-06
 -3.6906209e-03   6.1970300e-09
 -4.6504632e-02   2.0662714e-04
  8.0035523e-02   1.4013985e-05
 -5.0868638e-02   2.5188539e-03
  1.1129784e-01   3.5174824e-05
  2.9282779e-02   9.5021557e-03
  7.3324211e-02   1.9092510e-03
  1.4533360e-01   9.3125005e-04
 -7.4680157e-02   3.4584515e-03
 -5.4874234e-02   9.9559011e-06
 -2.3485526e-02   2.2836255e-06
 -3.9053872e-02   1.4399389e-02
 -3.7843600e-02   5.2266580e-05
  3.0888857e-02   1.3350095e-06
 -5.9114184e-02   5.4036133e-04
  1.6526151e-02   6.6886493e-08
  1.8909635e-02   1.6539312e-03
  2.7230000e-02   2.4896126e-06
 -1.0550139e-02   9.8033270e-06
  1.6953014e-01   3.2065381e-04
 -2.7045891e-02   3.5320156e-08
  6.6781812e-03   1.8266666e-04
  2.1583855e-02   4.8583848e-04
 -5.1499899e-02   2.1761036e-03
 -1.2664674e-01   7.4277655e-04
  5.1065590e-03   8.8203356e-05
  3.8508337e-02   1.6771132e-04
  5.5333748e-03   4.2608920e-03
 -3.4830633e-03   4.0860652e-04
 -4.5339078e-01   1.0399985e-04
 -2.0673860e-02   3.1094078e-05
  6.0350128e-02   1.1467225e-08
 -5.3465543e-03   1.6945356e-04
 -1.3422792e-01   5.7240856e-09
  2.9696841e-02   3.0260868e-05
  9.4767381e-03   5.1560591e-04
 -1.1673510e-01   1.3706510e-05
  8.8089347e-02   1.0426872e-04
  1.0596486e-03   3.8980562e-07
 -9.1462350e-01   1.8364912e-06
 -3.5243530e-02   3.1549496e-06
 -6.2011735e-04   1.3623865e-04
  5.3330209e-02   1.6552463e-05
 -3.5482887e-02   8.7090227e-04
  3.8316049e-02   7.0934591e-04
 -2.0337041e-02   9.6648728e-06
  1.5623418e-02   6.6581187e-03
  2.3418909e-02   3.0560948e-08
 -1.1785017e-02   2.5904211e-03
 -1.1164515e-01   1.4951330e-04
 -1.6816365e-02   1.6363899e-04
 -7.9516381e-02   1.4312996e-05
  8.9391775e-02   2.6533969e-06
 -6.1878029e-02   4.5953029e-06
  2.5641799e-02   4.2371516e-06
  1.0031363e-01   2.0531705e-05
 -3.0156424e-02   6.8576180e-04
 -9.4745727e-03   5.1934738e-04
  7.5153723e-02   1.1363275e-09
  5.1781591e-03   1.2058717e-03
 -2.4299812e-02   1.4071915e-05
 -1.8242301e-02   1.3011098e-05
  6.1671797e-02   2.9800578e-05
  7.3954826e-03   1.5009466e-07
 -1.1078746e-02   3.1856314e-04
 -2.2567961e-02   2.0191165e-04
 -3.3912569e-02   1.0628966e-03
  7.0340550e-03   2.9541241e-04
  1.4688179e-01   1.3155805e-05
  2.3406055e-02   8.0896047e-05
  2.3900913e-02   1.8275698e-03
 -2.3947895e-02   1.2816088e-03
  8.8465787e-02   2.3293655e-06
  5.1453798e-03   2.6064768e-04
 -1.7801747e-02   9.0476726e-07
  1.4328647e-02   2.8155432e-07
  5.3409200e-02   8.1309315e-09
  1.2304648e-02   1.7142411e-02
  3.2681774e-03   9.2524861e-05
 -6.6796586e-02   1.7736747e-04
 -1.0650690e-01   7.4485870e-04
 -1.8576441e-02   1.0417673e-06
  1.9932044e-01   7.6727983e-06
  1.9627301e-02   9.3797324e-05
  3.8519684e-02   2.0852040e-03
  1.7550157e-02   2.7308224e-05
  1.7743124e-02   2.7331368e-03
 -3.4309840e-03   1.7850444e-04
 -1.2357574e-01   3.1526433e-05
 -3.6799007e-03   1.0085529e-04
 -4.2308774e-02   2.2981256e-05
 -3.8321171e-02   2.0553853e-04
 -5.5086114e-02   3.0830764e-04
 -1.1468730e-01   4.2850399e-05
  6.4807154e-02   3.0305691e-04
  2.1307926e-01   4.7543608e-06
  2.9072724e-02   6.0395751e-04
 -6.4981475e-02   2.3090087e-03
 -5.9444182e-02   6.7578178e-08
 -1.2967056e-01   2.1950935e-04
  2.7102154e-01   6.3112690e-05
 -2.6301976e-02   2.8114050e-06
 -7.1312077e-02   1.3921713e-04
  4.4863358e-02   1.0661858e-03
  1.2557131e-01   1.3666738e-04
 -1.6966758e-02   1.2706965e-04
 -1.2021274e-02   3.9934292e-08
  5.6423964e-03   4.4821740e-05
  1.2996167e-01   3.3955266e-06
 -1.0897691e-01   9.7006377e-06
 -1.3667312e-01   3.4982841e-06
 -1.8906580e-02   1.2665760e-02
 -1.7416133e-02   1.5692673e-04
  2.7790910e-02   1.2744685e-03
 -3.5168678e-02   1.2271383e-02
  2.8363513e-02   4.6320609e-05
 -2.3178225e-02   4.0112301e-03
  9.0712751e-04   1.8862414e-06
  3.9233062e-02   4.4632166e-08
  1.2235833e-02   8.5166164e-07
 -8.9576870e-02   1.5536873e-06
 -4.9561314e-02   4.9895629e-05
  3.5902958e-03   1.4719882e-04
  8.1099473e-02   8.1548859e-07
 -1.0165191e-02   4.7513463e-06
 -6.6406503e-02   2.0293929e-03
  7.1785031e-03   1.6787337e-03
  5.8508620e-02   3.6486425e-03
 -1.3468685e-02   1.6009737e-09
  2.5122829e-02   1.2924111e-06
  4.7154713e-02   4.8373132e-03
 -2.4511036e-02   3.7811067e-02
 -5.6093656e-02   2.2276478e-04
  4.9621046e-02   1.2765021e-07
  1.2724973e-01   2.9914850e-07
  9.8685026e-02   1.2445136e-03
  4.1340493e-02   2.1038908e-03
 -4.6839006e-02   1.0254079e-03
  8.0946736e-02   7.0173286e-05
  1.5765226e-01   4.9166392e-06
 -8.5918769e-02   1.0330817e-02
  7.4849008e-03   1.2547767e-03
 -8.5482314e-02   1.3122426e-08
 -3.0669766e-02   4.4916416e-04
  5.9314921e-02   2.4831809e-07
  3.4886252e-02   5.2786962e-04
  7.9138447e-03   2.4274228e-05
 -8.8980347e-02   9.4966817e-06
 -4.6168298e-02   1.5779609e-06
 -3.3542082e-02   5.8954698e-03
 -4.2595387e-02   5.1558903e-08
  2.2170033e-01   3.3890767e-04
 -2.9102242e-02   1.9542729e-02
 -6.0541399e-02   1.9433091e-06
  5.1685162e-02   4.8869264e-08
 -7.9102524e-02   5.5901229e-04
  1.1982776e-01   2.3739119e-06
  2.4248870e-02   1.7247665e-03
 -4.7936942e-02   1.8206639e-04
 -2.4501493e-02   6.3281254e-06
 -2.5312654e-03   3.2139146e-03
  1.6185706e-02   7.9758778e-05
 -9.5488718e-03   1.6186827e-05
 -2.6071831e-03   2.9197132e-05
 -2.7162893e-02   8.0764548e-06
 -5.0118789e-02   1.3752850e-05
  1.2464898e-01   2.4126498e-03
 -9.0878196e-02   1.9963945e-06
 -2.7154074e-03   2.3271230e-05
 -2.5092294e-02   1.2340724e-02
  1.9159807e-02   2.8064428e-03
  3.1937107e-02   6.2315383e-05
  4.9140967e-02   9.1786326e-08
 -5.7130925e-02   7.8376904e-03
  1.2573351e-01   1.6716447e-06
  4.3689989e-02   1.2323514e-03
  2.3469014e-02   2.7467936e-04
  5.4497086e-03   2.1640430e-05
 -3.3265810e-02   3.4127770e-05
  7.7654302e-02   2.0539348e-07
  4.3810125e-02   3.1636832e-03
  1.0232693e-01   1.1104960e-05
  1.8920889e-02   8.0966420e-05
 -1.4356049e-02   1.1432968e-04
  1.6084155e-02   2.0945456e-06
  3.2861028e-03   2.8827949e-04
 -3.1827163e-02   8.5480833e-06
 -1.4604832e-02   8.4671585e-05
  1.8714881e-02   2.4440003e-05
 -3.1792656e-02   2.0374985e-08
 -4.5773666e-02   2.0416452e-05
 -2.0907482e-02   3.3199985e-06
 -8.5338289e-03   1.9704492e-03
 -2.2063272e-02   3.9242986e-03
  1.4908424e-02   2.1959602e-05
 -7.8494204e-03   4.4487356e-06
 -4.3530684e-02   1.3152279e-04
  3.8979068e-02   3.6935318e-05
 -1.5290021e-02   2.7004478e-04
  3.2464098e-02   2.8416706e-04
  6.7628719e-02   1.7013798e-02
 -2.8845392e-02   5.5251829e-04
 -7.5410128e-02   2.5478099e-04
  9.6478628e-04   1.1526059e-06
 -4.3003466e-03   4.8913429e-03
 -1.0561202e-01   1.8659123e-09
 -1.9814248e-01   6.5855947e-06
  2.3652930e-02   1.9277370e-02
 -4.9585652e-02   1.2406886e-07
  1.7635586e-02   6.6374443e-05
 -3.7046872e-02   1.0050597e-05
 -3.5213981e-02   2.4438903e-03
  1.1483439e-02   1.5216102e-03
  5.1065769e-02   7.4397202e-04
 -9.0868890e-02   3.9802894e-06
  2.0834219e-01   5.8208397e-03
  1.2913997e-02   1.7497034e-05
  5.1879115e-02   1.9128397e-06
  1.0617185e-01   1.7844559e-05
 -2.8412679e-02   1.0923443e-03
 -6.0296864e-03   2.8207171e-04
 -1.2991394e-02   1.6414920e-03
 -6.4714603e-02   2.8592406e-04
  1.9720368e-01   2.2492802e-08
 -1.0168658e-02   1.9731368e-03
  3.4749150e-02   7.7591510e-05
  2.7534575e-04   1.1356019e-02
  1.4602912e-02   9.9293888e-03
  8.6095832e-02   8.9594374e-11
 -1.3881030e-02   5.4224307e-04
 -2.7452853e-02   5.1398165e-05
  1.9769611e-02   1.1435400e-11
 -8.5304538e-03   2.1763105e-06
  2.6282609e-02   2.3606295e-02
  2.3768460e-02   5.3723716e-07
  6.0429587e-03   2.4251173e-04
  4.4736262e-02   3.0390495e-03
  7.9617780e-03   1.5954116e-05
 -5.5354059e-02   2.2518216e-05
  3.3161078e-02   1.5914726e-05
 -7.1843028e-02   1.6337501e-02
  1.4969428e-01   7.8048012e-03
 -2.8570725e-02   5.0103274e-04
 -1.7704891e-02   1.6472653e-02
  2.1340005e-01   8.1720769e-05
 -1.7459994e-02   6.4661835e-05
  4.6833232e-02   7.5360661e-04
  1.2902871e-01   5.5348232e-06
 -2.2085663e-02   1.6354797e-06
  4.3322716e-02   4.6488790e-07
 -6.6150781e-03   1.1211346e-02
  4.1684341e-02   6.1665471e-03
 -1.2189691e-01   5.0204744e-07
  1.3614000e-02   1.7307368e-04
  5.5407723e-03   1.4730004e-03
 -3.0480979e-02   4.7350914e-04
 -8.2097175e-03   1.8942807e-09
  1.7614450e-02   4.0266623e-05
 -1.2282932e-01   5.4820506e-03
 -4.4311173e-02   2.1654710e-03
  1.0697375e-01   4.5140422e-04
  2.1972435e-02   5.2962732e-05
 -1.0848548e-01   2.8772665e-06
  1.7050873e-01   8.3870145e-07
  8.0185132e-03   1.6077081e-06
 -1.4592759e-02   4.1124053e-04
  1.5062343e-01   1.0565155e-02
  3.7518140e-02   2.0380650e-04
  1.1411525e-01   4.1705742e-10
 -1.1336794e-03   1.5769705e-05
  2.0636618e-02   3.0855910e-05
 -2.6126558e-02   2.0314976e-04
 -5.3283226e-02   1.4967143e-03
  6.8622041e-01   5.0842722e-08
  5.1684432e-02   7.0698363e-05
 -1.3919438e-01   8.1139262e-04
  2.6219964e-02   3.0794505e-03
  1.6543658e-02   1.7068151e-03
  1.8163348e-02   1.1051154e-03
  1.5477980e-02   3.5128347e-04
  2.9779969e-02   2.6970738e-04
 -2.4425879e-02   9.2802702e-07
 -1.4760092e-01   7.0555775e-06
 -3.8240600e-02   1.1821234e-03
 -9.2679244e-03   2.7564290e-04
 -2.3990553e-02   1.8649986e-05
  2.3046579e-02   4.6055797e-05
 -3.5023727e-02   1.4256906e-06
  1.1688806e-02   1.2463032e-03
 -3.3666886e-02   4.4485062e-04
 -5.2997846e-02   1.7822878e-02
 -2.4815656e-02   3.1664583e-03
 -1.2414929e-01   4.2652122e-05
 -1.3663725e-03   1.2364150e-03
  3.4484121e-03   4.1417548e-05
 -1.4168388e-01   9.4494777e-04
 -7.9871155e-02   6.1595497e-06
 -4.8317108e-02   1.2864041e-03
 -9.7096963e-03   7.4857172e-07
  5.6514774e-02   2.6477332e-04
  9.8419737e-04   4.9333676e-06
  4.4795200e-02   4.2654481e-08
 -1.0729932e-02   3.9040908e-04
  9.8178424e-02   1.6216251e-04
  8.4603950e-03   3.6838010e-05
 -4.9600542e-02   3.4046385e-03
 -2.0520706e-02   4.7678640e-04
 -3.9842762e-02   2.7042907e-03
 -5.7251669e-02   6.6715525e-04
 -2.1883896e-02   3.8677731e-06
  3.6430720e-04   5.4878218e-04
 -4.4258069e-02   6.0580414e-06
 -9.8862117e-03   1.0040657e-03
  4.3954708e-02   3.4398523e-05
 -3.1686138e-02   6.7317531e-05
 -3.8442370e-03   1.6547323e-04
 -2.0081813e-03   4.1308245e-04
  8.1369355e-02   5.6831432e-03
  1.3135670e-01   2.3579537e-06
 -4.1947067e-02   2.4750290e-04
  3.5954263e-02   1.5705275e-04
 -3.1521916e-02   7.4200733e-03
  2.1382391e-02   3.0517256e-07
  7.3819503e-02   1.9181640e-03
  9.2645697e-02   4.2355727e-04
  1.0341769e-01   4.1672618e-07
  9.0293549e-03   6.2729535e-04
 -6.3487962e-02   1.7789019e-04
 -1.2317067e-01   1.6813159e-05
  9.6008018e-02   7.1712026e-07
  1.3822160e-02   7.2817318e-04
 -8.1295528e-02   9.6774819e-08
  3.0809151e-02   1.8379314e-08
 -4.2000487e-02   2.7831213e-04
 -3.4106497e-02   1.0009037e-03
 -5.5243466e-02   1.4763157e-06
 -1.0824655e-02   7.5215689e-06
 -4.0541250e-02   8.9582558e-05
 -1.7527813e-02   1.7530286e-07
  6.1956674e-02   2.3586224e-04
 -1.0288402e-03   4.0032621e-04
 -1.4055445e-02   4.5623719e-06
  4.7537152e-02   1.4166865e-03
  9.6948637e-04   3.5270551e-04
  4.5740295e-02   2.4408064e-05
  6.2594819e-03   2.2977733e-03
 -9.0918787e-02   3.0935977e-03
 -8.2199804e-02   3.5667463e-06
  2.3094958e-02   3.9232018e-05
  1.1422753e-01   2.8291543e-03
 -8.0690131e-02   1.1860198e-02
  1.1432305e-02   2.9863795e-04
 -1.7984112e-01   1.9150732e-10
  2.4843450e+00   2.6523956e-06
 -5.5017142e+00   1.2515459e-05
 -6.7508739e-01   3.2278462e-05
 -4.3590612e+00   1.8934812e-05
  1.7715437e-02   3.5872181e-05
  2.0627077e+00   2.7397581e-04
 -1.7854869e+00   6.2706100e-04
 -1.5450369e+00   4.5913566e-05
  1.4107500e+00   2.1450068e-03
 -1.1096122e+00   3.9300215e-07
  6.8219668e-01   3.9980867e-05
 -1.1517127e+00   7.8987068e-06
 -5.6721531e-02   2.1081618e-07
 -2.9328378e-02   2.0834525e-05
 -1.7263906e+00   1.0666052e-07
  2.0989133e-01   1.6529058e-04
 -1.5678744e+00   5.0660340e-08
  7.3227078e-01   4.7308844e-05
 -8.3330387e-01   8.0387539e-04
 -5.6534225e-01   2.7520386e-05
 -9.6105790e-01   3.1291993e-09
 -1.4285223e+00   8.8984410e-07
  1.2002091e+00   6.7004294e-04
 -3.8030855e-02   2.9209279e-04
  1.6437103e-01   4.1293603e-04
 -6.6397423e-01   2.1547310e-05
 -1.2103584e-01   2.6105961e-06
  1.2468630e-01   2.0333496e-03
  1.4181039e-02   4.5391647e-03
  1.2017855e-01   5.4814841e-04
 -4.5115465e-01   2.4358626e-05
  1.5215351e-01   1.6841814e-05
 -5.0531244e-01   6.3778643e-08
 -2.7013502e-01   5.9691141e-05
 -6.6323742e-02   4.8344635e-04
 -1.2251276e-03   8.6124355e-06
  1.9565257e-03   5.9156853e-04
 -2.5042165e-02   3.5821093e-04
  1.8565252e-01   4.0287304e-07
 -1.3504283e-01   6.2155588e-05
 -5.6013875e-02   1.4092533e-04
 -7.2624363e-02   9.8525770e-06
  2.6030362e-01   6.6341105e-05
 -9.5554884e-04   2.4984825e-05
  2.7852204e-01   3.3387329e-07
  3.4187108e-02   6.3829342e-05
  2.9247063e-01   8.0585011e-08
 -9.3766740e-03   3.8391209e-04
  3.6232933e-02   5.1354753e-05
  7.4597150e-02   5.2134787e-05
  8.0696074e-03   1.1183888e-10
  2.6890039e-01   9.3463971e-04
 -5.9710455e-04   1.5128727e-07
 -1.4063329e-02   3.8186634e-05
  4.6636622e-02   3.1868534e-05
  4.6190035e-02   4.1254763e-03
 -3.9789628e-02   4.6626857e-04
 -3.3451352e-02   2.9216264e-07
  7.0821987e-03   8.5589755e-04
 -1.3788220e-01   3.1408302e-08
  1.6249184e-01   3.4435000e-06
  3.6090906e-03   1.1172158e-03
  4.9343083e-02   1.1759732e-03
  1.6953051e-01   6.7797168e-07
  1.2202810e-01   7.2766474e-04
 -6.0911942e-02   1.7766976e-04
  1.8482691e-02   2.2060017e-03
  1.7646194e-01   3.2410324e-05
  8.6649336e-02   2.0946528e-07
  2.8596152e-02   8.3994191e-06
  1.1783274e+00   4.2533037e-07
  3.3879822e-01   1.2717514e-04
  8.2481191e-02   5.8949714e-05
 -1.7563840e-02   7.0119865e-04
 -8.5388139e-02   7.7961886e-06
 -3.4929186e-01   1.7888497e-07
 -3.4698263e-02   7.9901463e-07
  1.9249437e-02   4.0722540e-07
  1.9100150e-02   1.2614762e-05
 -1.8030494e-01   1.1724424e-04
 -3.9180261e-01   4.5237454e-09
  6.2192585e-02   2.5629904e-04
  4.3711483e-02   3.9995971e-06
  1.2622719e-01   2.7645880e-04
 -6.6424675e-02   1.3580289e-03
 -1.9667818e-01   6.0932404e-10
 -4.3560573e-01   3.5908794e-08
  4.1463845e-03   7.6256366e-03
 -2.4151668e-02   4.1416711e-03
  2.3445688e-02   1.9604284e-05
  2.3489574e-02   6.8329828e-05
  3.2345027e-02   5.0295657e-04
 -1.7125834e-02   4.7898386e-04
 -2.0254773e-01   7.2832464e-04
 -3.6636800e-02   8.2363002e-04
  6.3856058e-02   1.5441203e-04
 -5.8901202e-02   6.0665263e-03
 -1.1263536e-02   1.4946977e-06
 -2.1320772e-03   8.7367971e-07
  2.4836631e-02   3.2435248e-05
  3.4038324e-02   6.0551802e-06
  2.8290119e-02   1.0478117e-02
  2.6283445e-02   5.8600772e-03
 -1.6886215e-01   9.3218637e-07
 -4.5755864e-03   5.0906394e-05
  8.6987633e-03   8.8196085e-04
 -1.0201684e-01   1.1587603e-07
  1.3619156e-01   1.4091662e-06
  1.3837048e-02   2.9097598e-03
  2.0147899e-02   2.5083241e-04
  2.0695085e-02   8.6964057e-05
 -4.4628020e-02   6.3533924e-04
 -6.4092547e-02   9.7568613e-03
 -1.2985197e-02   1.5629774e-02
 -7.8276739e-02   4.2340791e-04
  6.2199164e-02   6.3970633e-04
 -1.5450820e-02   2.3241879e-03
 -1.3728052e-02   2.4207562e-04
  9.6693759e-05   9.9041127e-04
 -1.4053633e-02   1.7294890e-03
  3.7436619e-02   3.8519306e-06
 -1.2183463e-01   7.3874352e-04
  3.1815846e-02   3.2910454e-04
 -3.5077419e-02   1.7261689e-05
 -1.3640955e-01   1.6962735e-05
 -5.8717299e-02   1.9999003e-07
 -1.1566090e-02   3.1849317e-04
 -7.4687809e-02   2.1151121e-04
 -1.3724252e-02   4.3121530e-04
  3.6951948e-02   3.1376870e-03
 -2.1806657e-02   2.5140815e-03
  2.3478523e-02   1.2874694e-06
 -1.2813736e-01   1.8279223e-05
 -4.5831587e-02   2.1282522e-06
 -1.4243438e-03   4.0155249e-03
  2.6514742e-01   6.0465652e-08
 -3.5043914e-02   5.1123113e-08
  6.5822221e-02   1.0824558e-02
 -1.4933580e-01   2.0851073e-06
  8.2117133e-03   2.1793178e-06
  5.5835418e-02   2.5195997e-05
  2.9082920e-02   4.2837872e-08
 -4.2141743e-02   2.7553334e-03
  1.6877806e-02   2.0183561e-08
 -2.2012712e-02   1.3421375e-04
 -9.7570019e-03   1.1136671e-02
 -6.8802059e-02   8.2804880e-05
 -1.3099040e-01   3.4586934e-04
 -3.5475221e-02   5.0289095e-03
  1.5180135e-02   9.1128214e-04
 -3.5928395e-02   6.1720559e-05
  5.9684673e-03   4.1013905e-03
 -5.5421595e-02   3.4568831e-05
 -4.0066946e-01   4.6155793e-03
 -1.3899571e-03   2.3887386e-03
 -1.0802096e+00   8.9658271e-05
  3.3687111e-02   9.0058551e-05
  5.8637638e-02   8.2638544e-06
  1.5699154e-01   2.0746409e-03
 -2.2988035e-01   2.0527206e-03
 -1.2055942e-01   1.8942171e-04
  3.4819922e-01   1.9201632e-04
 -7.9458207e-03   1.0375373e-06
  7.2398465e-03   5.7494530e-05
  1.4356992e-02   5.5103128e-06
 -4.7343835e-02   6.3314585e-09
 -5.2552562e-02   1.9433376e-03
  4.6056411e-03   3.0737719e-05
  3.9347154e-03   1.2114901e-05
 -3.1903315e-02   1.5833399e-05
  2.8630987e-02   8.3816440e-07
  4.1152638e-01   3.3990211e-05
  2.6776588e-02   7.5593709e-10
 -5.4968420e-02   1.0118164e-04
  3.7707932e-02   2.5903790e-03
  4.7940766e-03   2.7288210e-03
  3.2222349e-02   4.1433228e-05
  4.6190951e-02   6.0854802e-07
 -4.8101540e-03   3.2344466e-05
 -8.2031503e-02   1.9141987e-04
  2.9993560e-02   4.3601278e-05
 -5.3163907e-03   4.5588338e-03
 -3.8020361e-02   4.9901485e-07
 -1.6143782e-02   3.1943625e-04
 -5.1785719e-02   5.4672164e-06
 -3.5236601e-02   1.6527613e-04
  6.6289954e-02   2.3774340e-04
 -5.7794750e-02   6.6036003e-04
  2.5560544e-04   2.5139879e-03
  7.3013054e-03   7.8264848e-06
 -4.6418561e-03   5.7996265e-05
 -3.2343838e-02   1.3571583e-03
  8.3769269e-02   2.1219007e-06
  2.2575646e-04   6.9824032e-06
 -6.6552004e-03   5.0453629e-05
 -2.6786467e-02   7.0966766e-05
 -1.4442573e-01   1.3901789e-03
  1.6086397e-01   1.5064132e-04
 -1.3466044e-02   1.9660883e-04
  1.2106652e-02   1.6279623e-04
 -5.1463161e-02   9.0951624e-05
 -2.9898619e-02   6.5292744e-03
 -1.0101050e-01   2.3455768e-05
  9.3096979e-02   3.5345133e-09
 -1.7840462e-02   4.7758203e-06
 -2.9504530e-03   7.8002358e-06
  8.2957320e-02   7.6473301e-04
  6.9475934e-02   3.5782061e-03
  9.1673182e-03   9.2476604e-08
 -4.3148097e-02   4.0528405e-04
 -3.9060131e-01   5.5325199e-07
  7.3515080e-02   1.2424641e-05
  3.0080125e-01   3.4210381e-05
 -2.3446597e-02   8.5589934e-05
  8.3704293e-03   5.4684788e-04
  1.8476373e-02   1.3999580e-05
 -2.2939641e-02   5.1895325e-04
 -3.8958009e-02   2.2153547e-07
  1.4879678e-01   4.3659908e-04
  4.2211208e-03   6.8771630e-03
  1.1206093e-01   2.3915609e-07
 -1.5545366e-03   1.1803027e-05
  2.7718417e-02   4.1850362e-04
 -7.0295036e-02   2.4755680e-05
  4.8564062e-02   5.1836581e-03
 -1.1115378e-02   6.3758882e-05
 -5.1416278e-01   3.9717816e-05
 -1.5326588e-02   3.4097914e-04
  5.8667459e-02   3.9900200e-08
  4.2826764e-02   1.8293556e-04
 -1.1823763e-02   1.1667825e-08
  6.8331107e-02   2.2501374e-06
  1.0534365e-01   6.4486130e-07
 -4.5357827e-02   9.1094895e-05
  6.2048644e-02   8.3359984e-05
  3.6612231e-02   3.4595720e-04
 -4.4064958e-02   3.3961104e-08
  2.2808371e-02   3.1269316e-03
  9.4674639e-02   3.8954418e-06
 -5.7554852e-02   8.0969785e-06
 -5.7490565e-02   9.3942514e-04
 -4.4238400e-02   4.0004760e-04
 -9.7638369e-02   8.4745465e-04
 -1.2159283e-01   2.6826265e-03
 -3.7072383e-02   4.9623839e-07
 -1.5725322e-02   4.5922508e-05
  1.6515389e-01   2.3663313e-05
 -2.1333389e-03   2.3676098e-08
  2.5759614e-01   1.0079739e-03
 -2.1779362e-02   1.4444847e-06
 -1.3572697e-01   6.8111229e-04
  1.4767150e-02   2.5449140e-04
 -2.6939276e-03   9.0730391e-06
 -1.3754129e-01   9.5686073e-07
  8.8617377e-02   1.4073693e-04
 -1.0675439e-01   1.8512813e-04
 -2.7404186e-01   1.0064364e-05
 -2.0743057e-01   2.7946973e-05
 -1.1683529e-02   5.5549674e-07
  1.5878875e-02   1.5834059e-06
  4.0933702e-02   1.7220921e-04
 -3.3190867e-01   1.9362405e-07
  5.2969041e-03   1.1924957e-06
  3.4462302e-03   2.7912299e-03
  1.0484992e-02   1.4473531e-04
  7.2213791e-02   2.0317629e-04
  1.6485373e-02   1.2344711e-04
  3.1221140e-02   2.7143027e-04
  8.9426413e-03   5.3889054e-04
  1.7321650e-02   4.1432222e-03
  2.3706812e-02   3.7761503e-05
 -3.0728996e-02   7.6011055e-08
  3.6856856e-02   3.5879431e-05
 -8.5935488e-02   6.6475427e-06
  1.1004981e-01   4.5525312e-07
  1.1125255e-01   5.9686189e-09
 -4.7110654e-02   2.2225300e-04
 -5.3705569e-02   5.3393938e-05
 -3.8217507e-02   6.9002650e-04
 -5.6037838e-03   2.3201096e-03
  5.6730241e-02   3.8619719e-03
 -4.5424648e-02   9.7928232e-06
 -4.1788220e-02   4.1143383e-05
 -5.3767141e-02   5.3539435e-07
  5.5486318e-02   1.8165047e-05
  1.1561558e-02   3.3567898e-04
 -9.8381057e-02   1.4217880e-05
 -1.1531435e-02   5.9069920e-05
 -2.9616348e-02   4.3172777e-06
  8.1786104e-02   7.8200334e-05
 -2.2913178e-02   1.0290507e-07
  2.9586112e-02   1.5613732e-03
  7.2606885e-01   9.0095353e-09
 -1.7296693e-01   4.8166979e-04
 -6.8746130e-03   1.9601123e-04
  4.3423893e-03   3.3037993e-04
 -8.0347648e-03   3.5267393e-03
 -5.6265384e-02   4.4422410e-03
 -5.2726492e-02   7.3455167e-03
  3.3224270e-01   1.9138745e-06
  7.4344766e-01   7.3662307e-04
  1.0210158e+00   4.1074035e-04
 -3.2709071e-01   8.4983039e-06
  3.9727308e-02   3.0567060e-06
  3.3890456e-02   2.5472224e-03
  1.6747756e+00   4.4914561e-09
  1.4735339e+00   9.5838141e-06
  4.7121052e-02   1.6370906e-05
  3.9078011e-03   1.4851339e-03
 -2.4491009e-01   1.0183269e-04
 -1.9331208e-01   1.8053242e-03
  7.4646898e-02   1.4920137e-04
  1.4172917e-02   1.1245882e-06
  1.0722255e-01   4.4240040e-04
 -1.9608717e-01   6.9277990e-04
 -7.6998895e-01   1.3925400e-04
 -7.9418415e-01   1.4986748e-06
 -5.1254636e-01   3.7919441e-03
  3.3941895e-02   1.7655765e-06
 -2.0630236e-03   1.5907780e-08
  2.8934106e-01   6.8947243e-06
 -2.4593368e-02   1.5717831e-04
  3.9938301e-01   6.5352191e-04
  2.8874131e-03   2.7332254e-07
 -1.2591121e-01   7.0875594e-03
 -1.0437934e-02   1.9997649e-03
 -5.0439882e-01   4.6979535e-06
 -2.5581252e-02   7.3337159e-03
 -1.8130133e-02   1.2994361e-03
  1.8487351e+00   6.3445853e-08
 -1.9970309e+00   8.7862543e-04
  1.0977991e+00   3.2096276e-07
  3.0138180e-02   5.7066663e-10
 -1.1387814e+00   5.8278454e-07
  1.2830622e-01   4.8968072e-06
 -4.4875085e-02   3.9838205e-06
  6.8446726e-01   6.7657884e-04
  1.0908499e+00   5.8946764e-04
  9.2787617e-01   3.1966998e-03
  1.4619760e-01   2.8889554e-06
  2.6634270e-01   3.2213202e-07
 -1.7490193e-01   2.1914999e-05
  8.7641793e-01   2.5798098e-04
  9.2276669e-01   9.6697468e-09
  1.1758493e+00   1.0721902e-08
 -4.1226259e-01   3.0419862e-04
  6.9695002e-01   3.5419271e-04
  8.3598179e-01   8.0006808e-05
  4.2035741e-01   3.3825748e-10
  3.0292723e-01   9.4080649e-05
  1.1854078e-01   1.7187962e-07
  2.4749026e-01   1.5792049e-05
  6.8725312e-01   1.4126104e-04
  1.3994182e-02   1.2271340e-03
  1.4161867e-01   2.3304669e-03
  5.3973097e-01   4.3756509e-04
  2.4672039e-01   1.2587102e-10
 -8.5269198e-02   8.4884412e-04
 -2.2947295e-02   1.2302659e-04
 -7.6552473e-02   2.8066186e-03
 -4.8086101e-01   1.4756801e-06
 -7.1224175e-02   1.6038107e-03
 -2.9488012e-01   1.9830598e-08
 -2.6512451e-02   1.0456427e-03
  1.1035214e-01   1.6279033e-05
 -1.7635778e-01   1.4524150e-04
 -3.5994962e-02   1.1372637e-06
 -6.3997386e-03   3.3066788e-06
  1.3379243e-02   3.5536280e-03
 -8.5416704e-02   2.8968758e-03
 -8.2168542e-02   7.6679519e-04
  1.3438101e-01   4.9560243e-04
  5.3605973e-03   2.4652055e-03
  1.8340776e-02   1.0131517e-06
  3.2926968e-01   1.4110385e-04
  3.1813983e-02   7.3609421e-08
  6.7096263e-01   1.0871095e-06
  2.0263335e-01   9.7373609e-10
 -3.5968337e-02   4.1114941e-04
 -2.7626263e-02   4.3001241e-04
 -2.1791644e-02   1.0096579e-04
 -2.5078213e-01   4.6203565e-09
  2.4265982e-02   2.6519238e-06
 -4.5663729e-02   1.6432807e-04
 -2.9354677e-02   1.8396060e-04
 -1.8151627e-03   2.0401482e-04
  1.5851969e-02   2.7861959e-11
 -3.2517787e-02   2.0071918e-04
 -3.4657933e-02   3.6969769e-03
 -9.8859563e-02   1.1298221e-02
  2.7821971e-02   1.1034141e-02
 -1.6694395e-02   9.0046694e-07
 -6.0914905e-04   9.1511120e-06
 -8.3579514e-03   1.3460104e-04
  8.8845957e-03   2.3055657e-09
  1.9541365e-01   2.8619820e-06
  3.4617807e-03   3.8678095e-07
 -1.4425061e-02   2.7767365e-08
 -5.0817979e-03   1.7887142e-07
 -1.5508780e-01   5.8586462e-05
 -3.8220774e-02   2.7650819e-04
  1.5583840e-02   7.7710374e-06
  6.7852885e-03   6.1364074e-07
 -6.4456947e-02   5.7359668e-03
  2.0290461e-01   1.3488988e-09
  3.7985325e-02   4.4780696e-05
  7.5670004e-02   2.2224370e-08
 -2.5694506e-02   1.1455869e-04
  4.5446366e-02   2.2190495e-03
  3.3768158e-02   2.5397845e-05
  1.9568041e-01   5.9670128e-08
  3.1802368e-01   8.3656772e-08
 -1.4329780e-02   1.1680307e-05
 -5.7540260e-02   3.6944693e-05
  6.1598457e-02   2.1987555e-03
  3.3524625e-02   4.6334555e-03
 -4.9262416e-02   1.1864422e-02
  1.6347805e-02   6.0514458e-03
 -6.1710827e-02   2.3236270e-03
 -1.4228466e-03   7.7578761e-08
  4.6150764e-03   1.2795288e-05
 -3.9779618e-02   1.1458383e-02
 -2.6818469e-02   7.8261672e-03
  1.1338837e-01   2.3117091e-06
  5.5683546e-02   1.7305576e-03
  3.4828737e-02   5.5478275e-09
 -2.1537475e-02   4.8085993e-05
 -3.0970473e-02   1.2292278e-03
 -8.5061692e-02   4.8132802e-05
  3.1494804e-02   4.8690199e-06
  7.1498983e-02   3.7974457e-06
 -4.5697289e-03   8.2873394e-06
  1.5027414e-03   5.0479081e-03
  7.8626312e-02   2.8893440e-03
  3.3006176e-02   1.0613910e-05
 -9.0986744e-02   2.4389094e-03
 -4.6319965e-02   1.3160943e-03
 -1.0908859e-01   1.1755334e-05
 -1.9734165e-02   5.4934653e-06
  6.1404482e-03   1.9409119e-03
  8.9835502e-02   3.2078151e-05
  2.6299708e-02   8.1991261e-11
 -2.3898399e-02   4.5993244e-03
  6.0108379e-02   3.9126473e-03
 -4.1716684e-02   7.2728000e-03
 -5.5222318e-02   1.6693340e-03
  2.4367100e-02   4.9378843e-05
  4.4619981e-02   1.7011761e-03
  1.1143454e-01   4.0628775e-03
 -6.5117508e-02   1.1668147e-03
 -4.9915733e-03   6.3900747e-03
  1.0130730e-01   1.1024621e-05
 -4.4934325e-02   2.8344814e-04
 -9.1767106e-03   1.4638956e-05
  5.4321545e-03   7.5881130e-06
  1.0836012e-02   1.9564701e-05
  1.9276498e-02   2.4635847e-05
  1.4674144e-02   9.9606002e-03
  1.3949854e-02   1.3186179e-02
 -3.9509896e-02   1.1973019e-02
 -1.9279586e-02   1.0338367e-02
  1.2324432e-02   1.3430475e-06
  9.8993359e-03   8.7373101e-06
  2.2297630e-02   1.6939475e-03
 -5.4960068e-02   6.8978232e-05
 -1.0463551e-02   1.6345239e-03
  1.2452303e-02   6.0495934e-03
  4.8669819e-02   5.6805933e-04
  2.7827684e-02   7.1450684e-04
 -1.1961499e-01   5.1332092e-05
  2.1459511e-03   7.4939104e-04
  1.9031290e-02   3.3544886e-04
  8.5587792e-02   1.8279003e-05
 -1.0829173e-01   1.6952116e-03
 -1.4997813e-02   1.1445594e-03
  2.1947561e-02   2.0545114e-05
 -3.8837086e-02   1.6626034e-05
  6.7455947e-02   1.1922071e-02
  1.2434845e-02   1.0956533e-03
 -8.6541072e-02   2.3751492e-03
 -8.7951863e-01   4.1517612e-04
  1.6326071e-01   5.4451590e-07
 -4.8521343e-01   1.8780505e-04
 -4.1191071e-01   5.9473696e-03
 -3.8868465e-02   2.9246644e-03
 -1.3067532e-01   2.8929732e-09